/*--------------------------------*- C++ -*----------------------------------*\
  =========                 |
  \\      /  F ield         | OpenFOAM: The Open Source CFD Toolbox
   \\    /   O peration     | Website:  https://openfoam.org
    \\  /    A nd           | Version:  6
     \\/     M anipulation  |
\*---------------------------------------------------------------------------*/
FoamFile
{
    version     2.0;
    format      ascii;
    class       volScalarField;
    location    "1";
    object      T;
}
// * * * * * * * * * * * * * * * * * * * * * * * * * * * * * * * * * * * * * //

dimensions      [0 0 0 1 0 0 0];

internalField   nonuniform List<scalar> 
4689
(
1.0722
-0.30929
0.488047
1.36847
0.530418
0.597924
0.374342
0.613934
-0.207714
-1.42066
0.236997
-0.164949
0.988039
0.194798
0.607331
-0.749672
0.297465
0.0954203
-0.0268143
0.0249267
0.748888
-1.13193
-0.761492
0.0143182
1.72878
0.992192
-0.688654
-1.32451
-1.06446
-0.731908
-0.825257
-0.89964
0.1735
-0.419821
0.373712
-0.317972
-0.654569
0.617613
-1.41165
-0.162262
-0.936287
1.27033
-0.320058
-0.789818
-0.880304
-0.527997
-1.10398
0.829813
-1.21236
0.578984
0.982648
1.79788
-1.55286
-1.80228
0.490526
0.709324
-1.2442
-0.490179
-1.32551
-1.29695
1.73856
-1.45784
-1.29835
1.39314
1.53053
0.192027
-1.30823
-1.60018
-0.166902
-1.24609
0.0032557
-1.23786
0.544826
-1.69914
1.27346
-0.219687
-0.564246
-0.518231
-0.351895
0.303983
-0.0392228
-0.121776
0.197186
0.0659564
0.472876
-0.687007
-0.178445
-1.33788
-0.916265
0.128999
-0.566647
0.894225
-0.0069502
-0.142896
-0.2654
-1.69141
-1.14179
0.12792
-0.302939
-1.78257
-1.69945
0.497545
-0.407959
-1.47672
-1.16549
0.123789
1.09711
-1.54246
0.963803
0.716112
-1.15981
0.754146
-1.10918
-0.229031
0.0927162
0.190159
-0.480886
-1.68519
0.0415989
-0.469439
-0.570626
1.26429
-0.0431034
0.016929
-0.883265
1.77195
0.285392
1.21159
-1.79779
0.118816
-0.610123
-0.170033
-0.0540127
-0.594527
0.73316
0.89354
0.313477
1.20812
1.07538
-0.957326
1.51669
-0.45604
-0.697513
-1.28309
1.35247
-0.883063
1.40371
-0.8158
-0.0798454
-0.814585
1.64349
1.3826
-0.560958
0.66662
-0.479885
-1.35159
-0.564739
0.662157
0.113364
0.667904
1.16488
1.15645
0.559456
0.437484
-0.666831
0.189953
0.451756
0.862497
0.089053
-1.55291
-0.646329
0.859695
-0.214282
-0.197457
-1.68138
0.0721258
-1.48878
-1.34743
1.25829
0.204588
-0.261384
0.0686047
0.628561
-1.63837
1.36145
-0.730066
0.6882
-0.355624
-0.591965
1.04936
1.10593
-1.1463
1.61138
1.02663
-0.645556
-0.435026
-0.689753
-1.64066
0.371855
-0.2594
-0.0637139
-1.63669
-0.0505213
0.706175
-1.58387
-0.788625
-0.0329024
-1.13384
0.209214
-0.386171
1.0446
0.251984
0.236495
-0.86174
-0.631408
-0.604484
-0.27145
-1.65001
-0.225453
-0.632758
-0.264577
-0.04876
1.41093
-0.0169328
-0.737319
1.57198
1.65192
-0.500422
-0.934068
-1.32805
-1.81267
-1.60937
0.878296
-0.461923
0.185484
-0.312837
1.21828
-1.7297
-0.49953
1.30136
0.282383
-0.488633
0.0855619
0.0281245
0.96808
0.424032
-0.180898
-0.175615
-0.733817
-1.73381
-0.711969
-1.09115
0.7751
1.7395
-0.0903418
-0.392298
-0.0121445
1.08872
0.233034
-0.778262
1.34041
-0.270846
-1.56213
-1.45524
1.5577
-1.29335
0.435237
-1.2242
1.84372
1.38672
0.802977
-0.0760859
-1.047
-0.63185
0.0583767
0.0882968
-1.72629
-0.785264
-1.40813
-1.04179
-0.527507
0.570495
-1.65979
0.792185
-1.71567
-0.169653
-1.73964
-0.33303
-0.278874
-1.26481
0.125225
-0.344396
-0.113203
-0.59753
-0.000908087
-0.0802713
-0.96165
-0.0408145
-0.688564
1.43287
-0.210447
-0.571655
0.409727
0.380152
-0.225335
-0.201245
-1.70503
-1.22539
-0.59911
-1.01438
-0.738591
-0.154492
-1.16769
1.23849
-0.361768
-1.51455
1.58615
0.883469
0.0506433
0.00795051
-1.39091
-0.664931
-0.414139
-0.526648
1.17597
0.287137
-0.20818
-1.38004
1.1878
1.14846
-0.19268
0.278334
0.977107
0.341496
0.250681
-0.0357731
1.62662
1.10107
0.766482
-0.351216
0.576821
1.00275
1.70268
1.31775
0.965758
-0.964592
-0.26094
-0.207588
0.0400591
0.988404
-0.681252
0.698999
1.20682
-0.956604
-0.772756
1.40523
0.217897
0.0368118
-0.288091
-0.346529
0.517001
-1.02702
-0.589342
0.112295
-0.218244
0.185185
-0.25004
-0.0960385
-0.343983
1.34364
-1.52979
-0.491183
0.181944
1.29317
1.72772
-0.126244
0.28215
-0.190874
0.388882
1.71856
0.236321
1.62565
0.25253
0.700211
1.48857
1.26988
-1.19461
-0.270636
-0.0398583
-0.494213
-0.329157
1.81826
-1.7644
-1.6844
0.0265272
-1.3653
0.627423
0.622478
0.0208565
-0.204712
-0.945521
1.85206
-0.457782
-1.06249
1.39821
-0.256755
-0.266904
-0.179742
-0.156284
-0.0979241
0.196199
-0.148899
0.888295
-1.75512
-0.186694
-0.239351
-0.805973
-0.447575
0.094663
-0.817199
1.52746
-1.03372
-0.282498
-1.26834
1.81174
-0.235797
0.435493
-0.179619
0.721484
-1.20755
-0.440522
-0.543883
1.35757
0.218522
-1.70673
-0.00511514
1.09813
0.291272
-0.0667032
0.430206
1.29109
-1.05359
-0.916928
1.59884
-1.10947
-0.45046
-0.249991
-1.81533
1.1609
0.12032
1.03489
0.234766
-0.627201
0.397569
0.889411
-1.21995
-0.0788287
0.880157
-0.942098
-0.101729
-0.801326
-1.04635
-0.930178
0.151768
-0.779826
-0.147513
1.14193
0.26365
-0.737193
1.13596
0.0765474
-0.156742
0.671856
-1.2268
-0.584822
0.202263
1.44778
-0.237501
0.801034
-0.930314
-0.726204
-1.23983
1.48384
-0.0308272
-1.51266
-0.621049
-0.891539
0.330983
-0.45483
0.884529
-0.557394
-1.03631
-0.158587
-0.424616
1.22401
-0.216816
-0.48437
0.324974
-1.71103
0.159883
0.996812
0.800133
0.0848362
0.9777
-0.927728
0.315408
-0.103789
1.62601
1.26082
1.23412
-0.20818
-0.4967
-1.75871
-0.975803
-1.26016
-0.746175
1.79589
-0.734851
-1.16181
-1.61207
-0.490676
-0.437232
0.214166
-1.38047
-1.6815
-1.22229
-1.17867
1.76379
0.925913
-0.137299
-1.66652
0.816036
-1.00993
1.23246
-1.64709
-1.51876
0.0796847
0.321594
0.0294899
-1.30237
-1.00519
-0.601646
0.335703
-1.14604
0.821953
-0.478663
-1.35975
0.886437
1.82497
-1.89735
-1.58416
-1.45608
-1.24541
-1.39642
-1.03301
0.388671
-0.497464
1.42963
-1.66928
1.3921
-0.17453
0.352962
-0.934088
1.38309
1.31164
-1.15079
-0.477848
-1.24938
0.0773208
-0.515951
-0.69279
0.631402
1.23175
1.78027
1.62892
1.45957
0.336019
1.00321
0.259497
-0.244398
1.0923
-0.589833
-0.440131
0.100402
1.81083
1.74472
-0.128108
-0.470418
0.161604
0.044262
1.75977
0.494091
-0.521627
1.03563
0.568714
-1.78622
0.178083
0.488667
-0.319713
-0.0637365
0.70959
0.676927
0.470344
0.472762
-0.630985
0.757704
-1.76711
1.23387
0.906984
-0.0162682
-0.463528
0.254405
-1.25795
0.299039
-0.105418
0.124481
-0.263134
-0.245014
-1.15356
0.403524
-1.03812
-1.15573
0.0436904
0.0298232
-1.77224
0.730765
-0.753929
0.33967
-1.56133
-1.57181
-0.0565284
-1.87878
-0.883018
-1.54259
-1.24811
0.971674
-0.663789
0.0184814
1.75083
-0.525102
-0.132847
0.782352
-0.773916
-1.35749
0.879767
1.04175
-0.504809
1.7538
0.779623
1.83697
1.7334
0.67833
-1.78047
-0.699808
-1.12525
-0.472539
1.63963
1.46228
0.0525955
-0.494171
1.04762
-0.0567753
-0.474279
0.459766
-0.448293
-0.505119
1.79421
-0.034891
1.26609
-1.73328
-0.298612
-0.245489
-1.10286
-1.76359
-0.796286
0.835696
-1.35441
-0.76628
1.09286
0.24266
0.247211
-0.236801
-0.711286
-0.200208
0.251697
-0.478705
1.26671
-1.34716
1.03328
0.590368
0.404507
-0.15884
1.0268
1.79112
0.883683
-0.323376
1.09191
-1.73997
-1.11267
-0.864672
1.41679
-0.236142
-1.01421
-0.0674084
1.39321
-1.15491
-0.473186
-0.0496055
-0.142804
1.0146
0.300511
-1.85647
-1.78362
-1.6553
0.0562085
-1.09466
-1.30447
-0.925596
0.315972
0.538991
-1.86229
0.888031
-1.18039
-0.814903
1.71759
0.758456
0.00038151
-0.029219
0.782103
-1.33531
1.32281
-1.49135
0.232393
-0.263803
1.3208
-1.5178
-0.491647
0.452774
0.0837543
0.736945
-0.400596
-1.60271
0.848301
1.14448
1.63047
0.310692
0.440938
-0.818609
-0.986659
0.0776409
-0.0318527
-0.286939
-0.701282
0.27994
1.61324
1.57705
0.0834134
-0.0286398
-1.41514
0.323411
0.0981749
0.00968861
-0.286879
-0.71572
-0.875299
0.800569
0.817103
-0.115165
0.097156
-1.6349
1.62962
0.0243186
-0.795985
0.793075
0.278373
-0.784553
-0.112394
-0.490732
-0.42946
-1.31617
-0.308364
-0.39421
-0.0481059
0.241272
1.27651
-0.139775
-0.426176
-1.21318
-1.36169
-1.42199
-0.677575
0.472071
0.458535
-0.88335
0.744374
-0.856125
0.567963
1.30503
-0.229782
-0.0996875
0.715955
0.572281
1.28541
1.08877
1.26097
0.862556
1.53506
1.64357
1.18379
0.245062
-0.0387588
0.976265
0.933005
-0.127441
-0.505228
-0.015807
-1.91007
-0.0266961
-0.456141
1.21426
0.747556
0.693541
0.0414327
-0.111416
-0.355303
0.250184
0.255981
-1.55807
1.37154
1.75828
1.00594
1.62797
1.07803
-1.78122
0.129116
1.77665
1.01485
0.73723
0.477871
0.166483
0.800177
-0.717274
0.158788
-0.416267
0.40154
0.741645
0.323383
1.35883
-0.883714
-1.29613
-0.348182
-0.271159
0.158758
-1.52171
-0.209081
0.249003
0.949889
-0.237234
1.70114
-0.316008
1.52577
0.0311236
0.0375805
0.780612
0.419905
-0.66345
1.58335
-0.466422
-0.233255
-0.369046
0.782278
1.53207
-0.131854
-0.947783
0.32558
-1.06363
-1.29053
-0.672476
-0.369109
1.11019
1.25332
-0.726145
-1.57605
-1.64454
-0.663707
1.70451
1.34813
0.520828
1.21343
-0.220338
-1.59001
-1.74814
-0.542086
0.299706
0.877425
-0.884364
-0.427498
-0.369687
0.957829
0.02459
-1.4724
0.259739
1.32604
0.720169
-1.66984
1.47568
1.34157
-1.01553
-0.0821646
0.376318
1.51983
-0.77553
-0.586961
-1.82539
-0.15936
-1.52333
-1.113
0.211704
-0.534625
1.59468
-0.773546
-0.507054
-1.70345
-0.108441
1.36534
-0.650474
-1.56722
1.21862
-0.510565
0.575468
-1.69027
1.55886
0.585364
-0.20685
-0.203289
0.726631
-1.02372
-0.487992
-0.765476
0.0907642
1.46847
0.306073
1.25719
-0.719766
-0.40911
-0.0904488
-1.26891
0.097156
1.43654
-1.60528
0.375162
0.861587
1.73404
0.384503
-0.998161
1.76662
-1.4406
-0.000732392
-1.2082
-0.230695
-0.847549
-0.103319
-0.221132
-0.706708
-0.656431
0.5193
0.176622
1.43203
-1.73
1.15852
1.176
1.65522
-1.33752
-1.46215
1.02173
-0.598688
0.3627
1.29186
0.981735
1.44047
0.130801
-1.48885
1.39316
0.595782
-0.228166
-0.0828901
-1.60313
0.0214447
1.26584
0.296606
1.49904
1.6661
1.07829
0.0748872
0.490551
-1.04309
-0.797045
1.12966
0.558
0.115482
-0.041478
1.41888
-0.505236
-0.8643
0.862037
0.633519
0.0295842
-1.65509
-1.31849
0.214749
0.058039
-0.105692
0.235108
0.852629
-0.16228
-1.22223
-1.22875
1.64322
0.41572
0.130419
0.217745
1.73667
1.02818
-0.90119
-0.819444
0.265462
-0.345584
-1.74342
-1.17383
0.172571
0.635583
0.136243
1.55414
0.492248
-0.371016
-0.548634
-0.156864
0.0749156
-1.26551
0.398345
0.466431
0.685819
-0.787318
0.140456
-0.269804
1.29478
1.19673
0.041081
-1.20416
-1.82081
1.0806
-1.2158
0.353884
0.0383323
0.687125
-0.140975
-1.29118
-1.62782
1.23601
1.69984
-0.207714
-0.887651
-1.46555
-0.959404
-0.9338
-0.77686
-0.173516
1.34047
-1.33272
-0.452926
0.00989021
-0.498278
-0.776599
1.29327
1.79621
-0.671752
-0.582536
0.494831
0.248223
0.938437
0.6825
0.819783
0.0859923
-0.256153
0.809088
-0.0740826
0.704515
0.0848362
0.171445
0.232393
0.409428
0.161464
-0.208642
0.666708
-1.60501
1.40313
-0.218565
0.138736
-0.272264
1.22371
0.406845
0.0506433
-0.0971758
0.321578
-0.967638
0.257041
-1.65419
1.40486
-0.30076
0.238222
-1.64611
-0.241617
1.13006
-1.05994
-0.47516
-0.171269
-0.573842
0.0961046
-0.255352
0.137782
-1.76986
-0.0141629
-1.24244
0.125764
-0.771133
0.177474
0.849608
-1.78744
0.201181
-1.85961
0.951705
1.08516
-0.887353
-0.771663
-1.75573
-1.57364
0.446645
-0.0741836
0.90489
-1.24619
0.74265
-0.0884689
0.109011
-1.70502
-0.688996
-1.09751
-1.22976
-0.345772
0.907273
-0.190439
-1.33512
0.0691713
-0.813988
0.376492
1.68505
0.726257
-0.44437
-0.444772
-0.487576
-0.200061
0.914778
-1.3869
1.51046
-1.2407
0.681664
-0.187351
-0.348469
-0.264577
0.315536
-1.05725
-0.20856
0.339377
-0.216565
-1.22778
-0.666015
0.10074
0.500063
-0.0273788
-1.55114
-1.21308
-1.39467
-1.74726
0.297701
1.50233
0.234766
0.717856
0.0566143
0.382138
0.129119
-0.126044
0.239126
0.917888
0.0552023
1.28059
-0.726753
1.04563
0.767253
0.563755
1.29572
0.650608
1.3424
-1.58501
-1.5037
1.25465
1.57592
-1.6568
0.743807
-0.537234
-1.77614
-0.771972
-0.791042
0.329119
-1.8431
-1.35884
-1.82877
-0.0117921
0.429433
-0.93705
-0.258875
1.18827
-0.727485
0.0885618
-1.09509
0.0805841
0.0885618
-0.12275
0.0951899
1.85818
0.0827703
1.24293
1.40655
0.377993
0.33258
-1.26078
-0.314
0.541487
1.08001
-0.180431
-0.963123
-1.16404
0.479175
0.301965
0.237328
-0.065865
-0.238688
0.198126
-0.238688
-1.12625
-1.17496
-1.42493
0.148215
-0.427043
-1.2467
-1.43808
0.117963
0.0967623
-1.02981
1.73453
0.149924
-0.129036
1.00138
-0.807598
-1.32779
-0.483413
0.91114
1.37665
0.141154
0.418982
1.48389
0.946692
-0.0540127
0.273922
-0.194513
0.240346
1.11159
-0.327816
-0.622647
0.131267
0.0547413
-0.419426
1.04564
1.8355
-0.254109
-1.18992
0.68842
0.0547413
-0.503374
0.574531
-0.145645
-0.95998
0.728513
0.112226
-1.3192
0.834018
0.112474
1.62945
-0.739851
-1.42504
-0.142323
-0.694019
0.285603
1.60141
0.996502
1.2247
0.017576
-0.442797
1.1565
0.0601134
-0.86162
0.878218
-0.217953
0.856068
0.247762
-1.08378
-1.35234
1.20743
0.124417
0.0206515
0.0972728
1.69139
1.28449
-0.361988
-0.201806
-0.839329
-1.57661
-1.0557
-0.528945
1.64319
-0.442869
0.0510538
-0.0732239
0.448161
-1.8725
-0.713431
0.835537
-0.534615
-1.75262
0.101349
1.25656
0.825614
0.0200288
0.665691
1.48432
-0.0492113
-0.308587
-1.57503
-0.356949
-0.760647
0.192792
-1.22201
-0.204712
0.509639
-0.491922
0.356197
-0.0375922
-0.148532
0.0469189
0.737241
1.18582
-1.54733
-0.308735
-0.454315
0.432769
-0.552985
1.17871
0.503638
0.475089
0.712927
-0.490945
-0.0655194
0.123885
-1.13959
-0.853266
0.295978
-0.440624
0.129116
-1.5139
0.808335
-0.256263
0.904237
-0.0930156
1.56361
-0.262156
-1.2153
-0.237044
0.0595653
-0.0352699
0.615402
-0.113203
-0.616927
-1.24961
-0.177264
-0.297309
-0.369653
1.87539
-0.731632
-0.790895
-0.239956
-0.023289
0.541717
-0.14766
0.1135
0.282759
0.0547413
-1.64507
0.260232
-0.217282
0.862435
1.48255
0.0309667
-1.22966
-0.730011
0.456844
0.0178766
0.575203
0.188265
0.408831
-1.1277
-0.283184
0.163888
-0.130703
0.673883
1.30531
-1.37014
-1.59144
-0.658125
-0.984018
0.348534
1.02883
0.86909
-0.125991
0.570233
0.0396171
-0.0927098
0.527149
-0.735849
1.22985
0.446853
0.228529
-1.03994
0.793323
-0.0347479
1.83515
-0.153409
-1.22541
-0.725884
0.865404
-0.108352
1.79223
-0.235126
1.41054
-0.875719
-1.57673
0.319696
-0.00809165
-0.420964
-0.68843
0.0290291
-0.137735
-1.22267
-0.0592069
-0.0740826
-0.743536
1.26351
-0.92707
-0.643686
0.218568
0.0204394
0.295199
0.109063
0.78764
0.99146
1.14292
0.217091
1.16029
1.43938
0.201076
0.379134
0.450105
-0.755558
0.217091
-1.5979
-0.526268
-0.385373
0.0975332
0.779818
1.6056
0.074983
-0.632566
-1.34856
-1.05462
-0.218643
-0.250169
1.46123
0.241936
0.218417
1.707
1.23433
0.448587
0.29476
0.869258
1.07049
1.82656
-0.543402
0.766378
1.7994
1.76581
-1.27326
0.0142408
-0.520957
-0.404942
0.773844
0.696715
1.29684
-1.58396
-1.10339
0.205236
0.194002
1.24011
-0.0314385
1.2705
1.80677
0.0159266
0.672236
-0.90951
0.113825
0.281572
0.180329
-1.61586
0.905124
-0.433004
0.350001
-1.83635
1.03923
-0.437556
-0.777573
0.21167
-0.261428
-1.58079
0.103249
-1.86442
-0.601063
0.711581
1.17986
0.60137
0.33967
1.35716
1.17545
0.243252
-1.53243
-0.453844
1.33237
1.7873
0.147655
1.44745
-0.24339
1.04976
-0.471742
-0.784299
-1.11573
-0.150587
-1.11058
1.53951
-1.76117
-0.103008
-1.49628
0.679161
0.913821
-0.000732392
0.233421
-0.143996
0.395571
-0.377388
-0.241617
1.00861
-1.50075
1.63652
0.866212
-0.48479
-0.243108
1.22105
1.61146
0.405163
-0.186322
0.22939
0.712876
0.318404
0.0867655
-1.29765
-0.0719697
1.0816
0.360504
0.537123
1.72536
0.271688
1.27231
-0.461478
1.38498
1.20464
0.192704
-0.350128
1.21949
0.0010321
-0.219959
0.260625
-0.0547924
-0.890826
-0.517299
-0.244996
0.787148
-0.0334037
0.209801
1.56485
1.49252
-0.443885
0.505426
-0.523602
-0.0671753
-0.657967
-1.03935
-1.40581
1.25122
1.86991
-0.440932
0.418177
-0.962887
0.0655655
1.06496
-1.07519
1.75408
-1.18819
1.76726
0.166854
-0.05649
-1.61373
-1.30931
0.375412
-1.16286
-0.528631
0.506874
-0.294621
-0.30189
-1.7599
1.85334
-0.264264
-0.0137454
-1.19531
0.652507
0.115358
1.23529
0.23704
-1.75466
1.62567
0.269873
-1.15872
-1.05718
-0.0379714
0.26646
-0.222421
1.1071
-0.26841
-0.884652
0.127513
1.54862
0.401046
0.269873
-0.0547208
-0.348851
-0.978215
1.81138
-1.72178
-0.588414
-0.576757
-0.311966
-0.220338
-0.0799796
-1.75653
-0.556217
-1.84487
-0.937952
-0.349839
0.591761
-0.265588
-0.271082
0.298489
-1.59143
1.35388
0.424013
-1.58694
-0.779811
0.674425
-0.483311
-1.78482
-1.70071
0.250136
-0.296767
-1.8679
-1.6895
-0.10206
0.843646
0.326214
-0.117579
-0.534397
0.456264
-0.0701727
0.282232
0.104843
-0.451525
-0.0401199
0.856797
0.162265
-1.01212
-0.875863
0.27725
0.633664
-1.06974
-1.29222
-1.0087
1.88241
0.74694
-0.832077
-0.20555
-0.326743
-1.32545
1.2209
-0.0527144
-0.0055582
-0.54955
-0.0656176
-0.122542
-0.48338
0.898441
0.113506
-1.30199
0.486893
-1.38578
-0.782853
-0.349571
-1.72141
1.83809
0.477852
-1.17987
-0.600281
0.238294
-1.74608
-1.47773
0.75742
1.60662
-0.483307
-1.53514
0.0272844
1.52927
-0.104132
1.12828
-0.0809244
-1.70849
0.200301
-1.72468
0.376203
-0.0770896
-1.10225
-1.62324
-1.40063
0.516749
-0.337274
1.26806
0.525752
0.196537
-0.105418
1.24977
-0.728286
1.59578
-0.389248
-1.30278
0.925825
1.63104
0.262506
-0.296559
1.22273
-0.117241
0.486781
0.171218
0.761247
-0.201971
1.00572
0.0115863
-1.2171
-0.736726
-0.337347
0.0659886
0.416062
-0.65292
1.28811
0.440482
-0.13358
-0.875765
-0.323927
0.552435
1.32291
0.315794
-0.489447
-0.250929
-0.940119
1.82981
0.960671
-1.41612
-0.76856
-0.963417
-0.1927
-1.03871
-1.32183
-0.797076
-0.772621
-0.631042
0.410025
-1.47592
0.210808
0.840352
-1.79194
-1.45905
0.535907
0.580881
-0.0873139
-0.0743168
-0.655482
-0.761816
-0.550921
0.270814
0.724661
-1.05691
-0.890324
-0.144605
-0.459446
0.336008
-0.0789343
1.29706
1.4118
-0.00960102
0.880924
0.629701
-1.17429
0.518944
-0.938969
-0.0766733
0.969017
0.0801982
0.425313
-1.27487
-0.764055
1.44651
0.764557
-0.999297
-0.0722694
0.236997
0.26774
-0.208409
-1.70815
-1.21368
0.218506
1.73137
1.44866
-0.140896
-1.41278
-0.368864
0.745893
-0.369718
0.476844
-0.00157855
0.637167
-0.466631
-1.76592
0.125823
-1.69869
0.207316
0.0382457
-1.43289
0.65821
-0.0236272
-0.165322
0.0475804
-0.649607
-0.935247
0.281508
-1.1199
-0.701309
1.72539
1.58634
-0.655969
-1.36786
-0.852537
0.0489961
0.256772
-0.277534
0.669384
-0.525319
0.154286
-0.154795
-0.01942
-0.244379
0.0168581
-0.688099
-0.745821
-0.0866479
1.05161
1.57919
1.24503
-0.57495
-0.0228083
-0.609725
-0.391247
-0.413681
-0.900098
-0.665955
-0.441936
-0.597103
0.204985
-0.477826
0.602353
-0.250169
-1.33107
-0.0314935
-0.509702
-0.613869
-0.522833
-1.23506
-1.06281
-0.460911
0.00796388
-0.0848392
-0.779739
-0.378093
0.522292
-0.806387
0.906761
-0.00920139
1.66044
-1.72878
0.215261
1.83037
-0.851799
-1.68634
1.45155
-0.417667
-1.53782
-0.203793
0.099723
-1.50342
-0.766396
-1.22855
0.00420986
-1.02007
0.654277
0.257399
0.557889
-0.988962
1.22689
0.550558
1.54546
-0.961213
-0.0579369
0.493094
1.62686
-0.417797
1.76409
0.225458
1.73655
-0.449366
0.0403432
-1.73333
-0.747288
0.0368059
-1.22434
-0.788614
1.82982
1.14314
-0.24707
-0.642664
1.43955
-0.653426
-1.65684
-0.133301
-1.08626
-0.778348
1.36314
-0.246821
-0.234318
-0.0047958
0.453443
-0.333958
-0.498549
-0.854841
-0.28854
-0.180898
-0.192246
-0.939865
-0.490771
-1.35424
-0.74799
-0.018507
0.94086
0.520865
0.108151
0.383285
-0.397852
1.60776
-0.74048
-0.0041347
-0.821839
0.370243
0.0603807
-0.0218301
0.0849487
0.49435
0.0250914
-1.51145
1.44096
0.385948
0.246055
-0.275258
0.122338
0.210804
-1.05597
0.174511
0.360867
-1.13658
0.857605
-1.3925
-0.43006
0.768749
-1.54734
-0.754097
-0.101524
-0.772083
0.924843
1.03644
-0.165838
0.579701
0.184868
0.0929567
0.0712423
-0.452177
-1.46903
-0.321771
0.244892
-1.70349
-0.466025
-0.855398
-1.22959
1.39016
0.719385
-1.1641
0.292523
1.24405
-0.889233
-1.59745
0.0265837
-1.35101
-0.681364
-0.170786
1.82555
0.0693659
0.257518
0.128666
-0.532682
0.288221
-0.201579
0.648686
-0.0450272
1.70682
0.185468
-0.336284
0.262639
0.136731
0.268709
-1.77098
1.0479
0.175231
0.553165
1.23307
-1.44909
-0.282348
-0.196283
1.74703
0.877709
-1.24411
-1.74021
-0.137426
1.14559
-1.05609
-0.089767
0.26324
-1.32742
0.274712
-0.869208
1.70119
0.795987
-1.68934
-1.30051
-0.0836628
-1.48652
0.137671
0.163342
0.344098
-1.64093
-1.48705
0.260778
0.829203
0.789791
-0.360749
-0.489704
-1.19734
-1.57932
-1.44209
1.63119
0.259492
-0.48295
0.386292
-0.230094
-1.01627
-0.0240846
-0.131611
0.0576217
0.808134
-0.904112
-0.306376
0.0172769
0.452541
1.35322
-1.00705
-0.837039
-1.04615
-1.26557
0.00279706
-0.431256
0.636075
0.0506433
0.546493
-0.532894
0.329366
-1.74621
-1.61409
-1.79761
-0.273304
-0.670118
0.14391
1.46699
1.76401
-1.73997
-0.0827235
0.793638
0.240902
1.01178
0.244178
-1.47781
-0.53213
0.681759
0.304234
1.50647
-0.275939
0.339498
0.443632
-0.149221
1.42201
0.809691
1.63523
1.24071
1.75073
0.0686518
-0.191275
0.165216
-0.144105
0.0801982
1.6284
1.77558
-1.20232
0.0100383
0.0179871
0.409692
0.969204
-0.906257
0.538422
-0.0733667
1.49619
-0.472002
0.336564
0.806933
-1.68962
0.832156
0.345423
1.55253
1.76195
0.0994005
-0.0288575
-0.238522
-1.34516
1.78426
-1.16734
1.91489
-1.1912
0.079466
-0.489497
-0.931613
-0.342772
0.511164
0.299457
0.00078119
-0.0429433
1.33063
0.0388315
0.0729119
1.64655
-0.141419
-0.448386
0.976417
0.788121
-1.81409
-0.183827
0.451898
-0.180764
-1.91975
-0.0888612
0.222148
-1.74763
0.65364
-0.229852
1.57859
-0.0477614
-0.647132
1.20922
-0.00044655
1.07322
-0.0183515
0.0377657
-0.274419
-1.28153
1.75414
-0.998665
1.0372
-0.345021
0.012114
-1.17337
-0.310434
1.36262
-0.29759
-0.709762
-0.176566
-0.293507
1.49666
-1.23751
0.363457
0.249717
-0.302845
-0.344534
1.63522
-1.57623
0.162786
-1.46074
0.631601
-1.53309
-1.42209
0.215854
0.163004
-1.14816
1.84186
-1.38183
0.515359
1.61208
0.238521
0.512383
0.507887
1.68174
-0.50047
-0.990261
1.35336
-0.878196
1.74886
-0.761973
-0.059381
0.344804
-0.2654
0.927516
0.258989
0.0748872
1.17611
-1.01438
1.38951
0.590883
-0.375176
-1.22492
1.04585
-1.00544
-1.87541
0.0606099
1.05314
-0.64019
1.75258
-1.32349
0.253404
-1.75574
-0.635806
-0.489144
-1.27294
-0.00425147
-1.60858
-0.571965
-1.43033
-1.54241
-0.440995
-1.47459
-0.105873
0.199512
0.905854
-0.922543
-0.260157
-1.81446
1.67721
-0.293684
1.51227
1.11253
-1.2783
-0.487032
-0.690183
-0.930948
-0.786267
-0.623185
-0.228166
-0.223888
-0.111263
0.186654
1.52642
1.61231
-1.70906
0.654325
-1.68817
1.78002
0.389294
-0.279876
0.19411
0.491039
0.097156
-0.0548309
-0.784971
-0.684478
-1.12968
-0.662411
-0.594651
-1.2718
-0.611206
-0.293249
-0.306518
-0.171337
1.75403
0.233738
-0.306518
0.236238
1.68957
0.495035
-0.553603
-0.210038
-0.838199
-0.808945
0.136647
0.639181
-0.959261
-0.341775
0.89665
0.679252
1.30401
0.539948
0.255273
0.253404
0.255273
0.727447
1.52338
0.929494
-0.227052
-0.517299
-0.798046
-1.72879
-0.708379
-0.668574
1.38998
-0.306849
-0.04876
-0.477049
0.25285
1.3419
1.81393
1.20011
1.57257
1.63266
0.607075
-0.33289
1.58578
-0.546001
-0.303421
1.778
-0.303208
-0.137388
0.635231
-0.00943413
-0.315752
-0.117077
1.38732
-1.70387
0.741532
0.148421
0.789533
0.179145
1.20959
0.111765
-0.0517347
0.642068
1.57495
0.87522
0.82707
1.24161
-1.67407
1.7993
0.781167
0.946865
1.51025
-0.410112
-0.176542
1.5556
-0.571517
1.46552
-1.52126
-1.03715
0.215567
-1.8058
1.2947
-0.526338
-0.380067
1.24445
-0.238269
1.0479
-0.509849
-1.65407
1.12746
-1.42747
-1.54607
-1.47431
-1.68093
0.365886
-1.56371
0.224782
-0.022223
1.21846
-1.12681
0.72552
-0.362186
0.562932
0.262415
0.0182834
0.248539
0.474981
0.6801
-1.46463
0.964728
0.405451
-1.0557
0.924789
-0.0448159
0.0465511
1.0235
1.32989
0.00184594
0.31094
1.847
-0.373541
0.127509
1.77818
0.0489588
-0.237423
1.07753
0.363138
-0.622385
-1.83699
0.190159
1.45463
-0.91318
0.481997
-0.930727
0.725705
-0.225774
0.242668
-0.0544759
-0.60374
-0.33543
-0.26343
-1.12689
-0.197391
1.66009
0.845984
0.299039
1.58449
0.169506
0.163567
-0.386972
-0.671738
0.237441
0.0128726
0.797965
-0.1927
0.272126
0.950082
1.47687
1.77637
-0.561816
0.103154
0.476593
1.40289
-0.282337
0.852966
-0.201971
-1.88158
1.71779
0.95459
0.122338
1.74081
1.29664
-0.315858
-1.42118
-1.23961
1.38771
0.608315
-0.259733
0.539925
0.654095
0.256463
0.243527
1.04154
-0.0913219
-0.181593
0.0714599
1.40009
-1.2557
0.490096
0.000928634
-0.0307358
0.0710848
0.218417
-0.287139
0.11635
-0.617427
-0.373488
0.172767
0.000709644
0.25559
-1.76573
-0.164844
-0.269774
-0.681252
-0.0978766
-0.307042
-0.0452719
-1.88425
0.434426
-0.0782392
-0.0665808
-1.02138
0.00319049
0.131644
0.309289
-0.951439
-1.2514
1.33544
-1.80444
0.130314
-0.513637
-0.445999
0.686761
0.299039
0.0010321
-0.338907
0.561786
-0.0444847
0.429371
0.459792
-0.556135
-0.504141
0.390319
-0.571803
0.548288
1.16749
0.839841
0.200558
0.352962
-1.33122
1.2186
-0.926809
0.613776
0.244641
-0.0168143
0.0294196
1.11373
-0.391211
-1.32907
0.0975332
0.442345
-0.465095
-0.193455
-0.478242
0.686671
-0.15052
0.0293974
0.0583675
0.428319
0.614603
1.78266
0.0144634
-0.0930391
0.0144283
0.18837
0.228529
0.202887
0.0883102
-0.20856
0.191833
0.436164
0.413605
-0.77074
0.209906
0.719781
0.153896
0.908935
-1.27939
-1.40115
0.564254
1.86276
-1.20541
1.34512
-0.91112
-1.44855
-1.61376
1.56109
0.430231
0.173354
-1.22355
-0.707217
-0.269774
-0.296707
-0.220338
-0.62353
-0.232404
-1.12762
-0.269774
-0.171391
-0.32812
0.619528
0.0828296
1.12219
0.235863
1.27638
1.07075
-0.87299
1.34385
0.703382
0.854773
0.445906
-1.78653
0.710497
0.658386
-0.603916
0.897207
0.701918
-0.579718
-0.113089
0.153921
0.819597
-0.684035
-1.56761
1.47633
-1.57228
-0.417478
1.62874
-1.73339
-0.536939
0.823052
0.100003
0.66798
-1.65793
0.0271857
0.751077
1.72657
1.87311
0.269775
0.749203
0.721487
0.234145
0.0732256
0.189932
0.254095
0.51472
-0.959465
1.51592
1.06316
-1.76138
-0.159736
-0.877721
1.5802
-0.119413
1.52064
0.263316
0.69477
-0.909259
-0.136498
-1.57957
-1.27385
1.09997
-0.30817
-0.690305
-1.15313
0.0172482
0.240481
-0.428491
-0.800924
-0.429846
-0.665261
-1.01373
0.103687
-1.44478
-0.0599408
0.135154
-0.661018
1.02362
0.402954
1.31091
1.17429
0.321627
0.745257
0.763717
1.19928
0.964502
1.31309
-0.996336
-1.51801
0.206874
-0.0466123
-1.71785
0.146481
-0.998121
0.556402
-0.379888
-0.05665
0.153921
0.129222
1.55191
1.62558
0.804701
-0.0432642
0.369609
-0.752857
-0.169704
1.22613
-0.25457
1.30016
-0.918126
-0.220338
-0.256263
0.100043
-0.678809
1.88572
-0.489868
-1.6006
-0.929946
-1.29568
-1.69555
1.81053
1.55213
-1.46577
0.811045
0.917211
0.30558
1.34765
1.46904
-0.97656
-1.13886
1.04647
0.0140744
1.77998
1.64859
-0.918238
1.29
1.52102
1.42961
-0.460488
-0.69979
1.76944
1.33705
-0.176711
-1.25023
-0.629752
1.18306
-1.75146
0.467512
-0.14647
0.720449
-0.703812
1.36007
1.68542
0.246717
0.778058
0.857074
-0.987735
0.318305
-0.793705
-0.0300732
0.398078
-0.730997
1.79281
0.784393
0.905004
1.52224
-1.02867
1.30682
0.445271
-0.158969
1.77448
0.0166759
1.24392
0.839804
0.015446
-0.772101
-0.94037
-0.981765
0.14882
-1.18376
-1.35997
-0.326217
-1.64629
-0.944572
1.0595
0.226529
0.978275
0.823424
0.468887
1.44682
0.268172
0.0139514
1.13714
1.31739
-1.0521
-1.6697
-0.169729
-0.923863
0.254794
0.27371
0.907426
1.77027
-0.370897
1.67815
0.335491
-1.15387
-0.46258
0.259619
1.30193
-1.65496
-1.65721
-1.21481
-1.40178
-0.406837
-1.84124
0.177238
-1.1993
-1.76091
-1.84791
-0.608094
-0.437727
0.241396
0.273552
-1.81205
-0.125311
0.465805
1.40813
-1.53143
1.69983
0.946387
0.162025
-0.189915
0.202598
0.136472
-0.183435
0.375933
0.037213
-0.344667
-1.53741
-1.68015
-0.897491
1.33901
0.620208
0.433531
-0.214862
1.09502
0.0633747
-1.79157
-1.46896
1.02676
-1.70352
1.15853
0.16354
-0.218565
1.07549
0.183714
-0.159823
-0.0512076
-1.13991
0.128275
0.688453
1.4523
0.553023
-1.02578
0.624459
0.240147
-0.18612
-1.51956
-1.61306
-1.15031
-1.74036
0.0143419
-1.6418
0.334592
-0.547478
0.22444
0.77009
0.234048
0.330092
0.373017
0.588001
-0.462264
1.34333
-0.126778
-0.791393
-0.838827
1.79267
-0.536436
-0.293473
0.00883741
-0.520108
-0.0315201
-0.834019
-0.603094
-0.220222
1.7927
1.58962
0.909798
-1.00303
-0.116828
-1.73816
1.50974
-0.487673
1.83436
0.483395
0.0408327
1.678
1.80221
0.172354
0.244145
0.0994525
-0.105514
-0.248639
0.221629
-1.66092
-1.36793
-0.659845
-0.587207
-1.7583
-0.319816
-1.37732
-0.186272
0.701485
0.416522
0.206061
-0.0935272
-0.372956
-1.64936
0.500327
0.0211595
-0.122837
1.18699
-0.0374853
0.818042
0.412603
-1.62379
1.3398
1.32247
-1.38899
0.569722
1.62305
-0.303618
1.30978
0.947719
-0.0577381
0.619201
-0.256294
0.416275
0.255194
-0.0551047
0.119341
-0.537404
-1.3639
0.395265
1.71532
-0.0288989
0.540751
1.09268
-0.921245
-0.0227694
0.940649
0.794879
0.927484
-0.0801484
0.702741
-0.170404
1.64872
-0.0874043
-0.884793
-0.961399
-0.286188
1.00055
-0.600711
0.932891
-1.48421
0.556006
-0.0378416
-0.190448
0.156554
0.10446
-0.18236
-1.05015
1.10607
0.0373104
1.33376
-0.562212
1.65179
1.78576
0.246865
-0.240108
0.443069
-0.78957
-1.05908
1.82162
-0.0801484
0.0848362
0.73182
1.20375
1.40554
-0.947246
-0.150863
-0.0293494
0.932119
1.63642
0.905233
-0.145586
-0.232647
-0.144105
-0.115414
1.62853
0.490239
-0.654456
1.79939
0.151457
0.994704
-1.49242
0.24124
0.45038
-0.156863
0.843063
-0.809683
0.172464
1.05061
-1.17909
1.57616
1.05664
-0.221806
-0.909208
1.51186
1.01107
-0.378577
0.381802
1.70698
-1.13854
-0.450675
-0.140234
0.698677
-0.4043
0.1641
-0.747418
-0.422667
1.12909
-0.222566
0.154111
1.52291
-1.54038
1.27501
0.425552
0.169679
0.744865
-1.35922
-0.437632
-1.79402
0.0151106
0.152104
1.49986
-0.0468688
-0.113618
-1.30237
0.820553
0.228529
-0.2596
1.43412
-0.218643
0.0952535
-0.0863559
-0.234718
-0.371169
-0.427437
-0.0666031
-1.21501
-0.510689
0.382596
-0.178807
0.356892
-0.530743
-0.692514
0.362203
1.60771
1.75502
1.72765
0.0888194
1.00056
1.20926
0.107354
0.524795
0.352929
0.0540868
0.397718
-0.568675
-0.0664594
-0.178676
-0.116218
0.371258
0.131175
0.751313
-0.625788
0.277541
1.1397
-0.656465
-0.876363
1.44877
-0.0338376
0.184575
-0.204712
-1.19407
-0.974664
-1.85574
-1.78376
-1.50691
-0.300919
-1.69492
-1.68136
-1.20107
-1.18604
-1.06069
1.77647
1.05097
0.412389
-1.32716
-1.14021
-0.276415
-1.86427
1.4383
-0.147592
0.355196
-0.152372
0.639153
-0.902266
-0.144105
-0.225114
1.73608
0.669991
0.468401
-1.78376
-0.762792
-1.13833
-1.36803
-0.686515
-0.481846
-1.18325
0.774016
0.867206
-0.0766029
-0.55928
1.70795
-0.918573
-0.551361